CAC data file via write_data, timestep = 0

0 atoms
16 elements
4 atom types
1 element types

0.0000000000000000e+00 2.6839795200000001e+01 xlo xhi
0.0000000000000000e+00 2.6839795200000001e+01 ylo yhi
-5.0000000000000000e-01 5.0000000000000000e-01 zlo zhi

Masses

1 1
2 1
3 1
4 1

Interpolate

1 6 6 1

Integration

1 4 4 1

Elements

1 1 1 0.0000000000000000e+00 0.0000000000000000e+00 0.0000000000000000e+00 
2 1 2 0.0000000000000000e+00 1.1183247999999999e+00 0.0000000000000000e+00 
3 1 3 1.1183247999999999e+00 0.0000000000000000e+00 0.0000000000000000e+00 
4 1 4 1.1183247999999999e+00 1.1183247999999999e+00 0.0000000000000000e+00 
5 1 1 1.3419897599999999e+01 0.0000000000000000e+00 0.0000000000000000e+00 
6 1 2 1.3419897599999999e+01 1.1183247999999999e+00 0.0000000000000000e+00 
7 1 3 1.4538222399999999e+01 0.0000000000000000e+00 0.0000000000000000e+00 
8 1 4 1.4538222399999999e+01 1.1183247999999999e+00 0.0000000000000000e+00 
9 1 1 0.0000000000000000e+00 1.3419897599999999e+01 0.0000000000000000e+00 
10 1 2 0.0000000000000000e+00 1.4538222399999999e+01 0.0000000000000000e+00 
11 1 3 1.1183247999999999e+00 1.3419897599999999e+01 0.0000000000000000e+00 
12 1 4 1.1183247999999999e+00 1.4538222399999999e+01 0.0000000000000000e+00 
13 1 1 1.3419897599999999e+01 1.3419897599999999e+01 0.0000000000000000e+00 
14 1 2 1.3419897599999999e+01 1.4538222399999999e+01 0.0000000000000000e+00 
15 1 3 1.4538222399999999e+01 1.3419897599999999e+01 0.0000000000000000e+00 
16 1 4 1.4538222399999999e+01 1.4538222399999999e+01 0.0000000000000000e+00 

Nodes

1 1 -5.5916239999999995e+00 -5.5916239999999995e+00 0.0000000000000000e+00 1 
1 2 5.5916239999999995e+00 -5.5916239999999995e+00 0.0000000000000000e+00 2 
1 3 5.5916239999999995e+00 5.5916239999999995e+00 0.0000000000000000e+00 3 
1 4 -5.5916239999999995e+00 5.5916239999999995e+00 0.0000000000000000e+00 4 
2 1 -5.5916239999999995e+00 -4.4732991999999996e+00 0.0000000000000000e+00 5 
2 2 5.5916239999999995e+00 -4.4732991999999996e+00 0.0000000000000000e+00 6 
2 3 5.5916239999999995e+00 6.7099487999999994e+00 0.0000000000000000e+00 7 
2 4 -5.5916239999999995e+00 6.7099487999999994e+00 0.0000000000000000e+00 8 
3 1 -4.4732991999999996e+00 -5.5916239999999995e+00 0.0000000000000000e+00 9 
3 2 6.7099487999999994e+00 -5.5916239999999995e+00 0.0000000000000000e+00 10 
3 3 6.7099487999999994e+00 5.5916239999999995e+00 0.0000000000000000e+00 11 
3 4 -4.4732991999999996e+00 5.5916239999999995e+00 0.0000000000000000e+00 12 
4 1 -4.4732991999999996e+00 -4.4732991999999996e+00 0.0000000000000000e+00 13 
4 2 6.7099487999999994e+00 -4.4732991999999996e+00 0.0000000000000000e+00 14 
4 3 6.7099487999999994e+00 6.7099487999999994e+00 0.0000000000000000e+00 15 
4 4 -4.4732991999999996e+00 6.7099487999999994e+00 0.0000000000000000e+00 16 
5 1 7.8282735999999993e+00 -5.5916239999999995e+00 0.0000000000000000e+00 17 
5 2 1.9011521599999998e+01 -5.5916239999999995e+00 0.0000000000000000e+00 18 
5 3 1.9011521599999998e+01 5.5916239999999995e+00 0.0000000000000000e+00 19 
5 4 7.8282735999999993e+00 5.5916239999999995e+00 0.0000000000000000e+00 20 
6 1 7.8282735999999993e+00 -4.4732991999999996e+00 0.0000000000000000e+00 21 
6 2 1.9011521599999998e+01 -4.4732991999999996e+00 0.0000000000000000e+00 22 
6 3 1.9011521599999998e+01 6.7099487999999994e+00 0.0000000000000000e+00 23 
6 4 7.8282735999999993e+00 6.7099487999999994e+00 0.0000000000000000e+00 24 
7 1 8.9465983999999992e+00 -5.5916239999999995e+00 0.0000000000000000e+00 25 
7 2 2.0129846399999998e+01 -5.5916239999999995e+00 0.0000000000000000e+00 26 
7 3 2.0129846399999998e+01 5.5916239999999995e+00 0.0000000000000000e+00 27 
7 4 8.9465983999999992e+00 5.5916239999999995e+00 0.0000000000000000e+00 28 
8 1 8.9465983999999992e+00 -4.4732991999999996e+00 0.0000000000000000e+00 29 
8 2 2.0129846399999998e+01 -4.4732991999999996e+00 0.0000000000000000e+00 30 
8 3 2.0129846399999998e+01 6.7099487999999994e+00 0.0000000000000000e+00 31 
8 4 8.9465983999999992e+00 6.7099487999999994e+00 0.0000000000000000e+00 32 
9 1 -5.5916239999999995e+00 7.8282735999999993e+00 0.0000000000000000e+00 33 
9 2 5.5916239999999995e+00 7.8282735999999993e+00 0.0000000000000000e+00 34 
9 3 5.5916239999999995e+00 1.9011521599999998e+01 0.0000000000000000e+00 35 
9 4 -5.5916239999999995e+00 1.9011521599999998e+01 0.0000000000000000e+00 36 
10 1 -5.5916239999999995e+00 8.9465983999999992e+00 0.0000000000000000e+00 37 
10 2 5.5916239999999995e+00 8.9465983999999992e+00 0.0000000000000000e+00 38 
10 3 5.5916239999999995e+00 2.0129846399999998e+01 0.0000000000000000e+00 39 
10 4 -5.5916239999999995e+00 2.0129846399999998e+01 0.0000000000000000e+00 40 
11 1 -4.4732991999999996e+00 7.8282735999999993e+00 0.0000000000000000e+00 41 
11 2 6.7099487999999994e+00 7.8282735999999993e+00 0.0000000000000000e+00 42 
11 3 6.7099487999999994e+00 1.9011521599999998e+01 0.0000000000000000e+00 43 
11 4 -4.4732991999999996e+00 1.9011521599999998e+01 0.0000000000000000e+00 44 
12 1 -4.4732991999999996e+00 8.9465983999999992e+00 0.0000000000000000e+00 45 
12 2 6.7099487999999994e+00 8.9465983999999992e+00 0.0000000000000000e+00 46 
12 3 6.7099487999999994e+00 2.0129846399999998e+01 0.0000000000000000e+00 47 
12 4 -4.4732991999999996e+00 2.0129846399999998e+01 0.0000000000000000e+00 48 
13 1 7.8282735999999993e+00 7.8282735999999993e+00 0.0000000000000000e+00 49 
13 2 1.9011521599999998e+01 7.8282735999999993e+00 0.0000000000000000e+00 50 
13 3 1.9011521599999998e+01 1.9011521599999998e+01 0.0000000000000000e+00 51 
13 4 7.8282735999999993e+00 1.9011521599999998e+01 0.0000000000000000e+00 52 
14 1 7.8282735999999993e+00 8.9465983999999992e+00 0.0000000000000000e+00 53 
14 2 1.9011521599999998e+01 8.9465983999999992e+00 0.0000000000000000e+00 54 
14 3 1.9011521599999998e+01 2.0129846399999998e+01 0.0000000000000000e+00 55 
14 4 7.8282735999999993e+00 2.0129846399999998e+01 0.0000000000000000e+00 56 
15 1 8.9465983999999992e+00 7.8282735999999993e+00 0.0000000000000000e+00 57 
15 2 2.0129846399999998e+01 7.8282735999999993e+00 0.0000000000000000e+00 58 
15 3 2.0129846399999998e+01 1.9011521599999998e+01 0.0000000000000000e+00 59 
15 4 8.9465983999999992e+00 1.9011521599999998e+01 0.0000000000000000e+00 60 
16 1 8.9465983999999992e+00 8.9465983999999992e+00 0.0000000000000000e+00 61 
16 2 2.0129846399999998e+01 8.9465983999999992e+00 0.0000000000000000e+00 62 
16 3 2.0129846399999998e+01 2.0129846399999998e+01 0.0000000000000000e+00 63 
16 4 8.9465983999999992e+00 2.0129846399999998e+01 0.0000000000000000e+00 64 

Node Velocities

1 1 2.5781347330124680e+00 -8.8181998479048680e+00 0.0000000000000000e+00
1 2 4.5890559942781870e+00 3.6891414539189218e+00 0.0000000000000000e+00
1 3 -1.2497704364592437e+00 -2.8666996289231110e+00 0.0000000000000000e+00
1 4 -5.9089926929889893e+00 3.1454567043411910e+00 0.0000000000000000e+00
2 1 5.7191441460572934e+00 5.1132756442479037e+00 0.0000000000000000e+00
2 2 2.5854932514683835e+00 -1.6993048866034735e+00 0.0000000000000000e+00
2 3 -5.6783203132287330e-01 1.1657980791355451e+00 0.0000000000000000e+00
2 4 2.5487794617279036e+00 4.5770535725148309e-01 0.0000000000000000e+00
3 1 3.0920025085031011e-01 -4.0152601018237739e+00 0.0000000000000000e+00
3 2 4.2872213084086974e+00 1.1595677628115333e+00 0.0000000000000000e+00
3 3 -1.8558865834720903e+00 2.9486475030892860e+00 0.0000000000000000e+00
3 4 2.5078130495648310e+00 6.0067095581769427e+00 0.0000000000000000e+00
4 1 3.9483403953991978e+00 7.8868951385016040e+00 0.0000000000000000e+00
4 2 -9.6064335572069961e+00 7.8320207995380349e+00 0.0000000000000000e+00
4 3 2.5190921167262701e+00 -1.7063701239239195e+00 0.0000000000000000e+00
4 4 9.4535242610188852e-01 4.8878101503722702e+00 0.0000000000000000e+00
5 1 2.6804343319664174e+00 -5.1412422330159337e+00 0.0000000000000000e+00
5 2 -1.0354004147654047e+01 -6.8319361914725167e+00 0.0000000000000000e+00
5 3 4.2553855444262831e+00 -1.0000074762897027e+01 0.0000000000000000e+00
5 4 -1.9054982042449218e+00 4.0055517841114279e+00 0.0000000000000000e+00
6 1 7.0032050719352670e+00 -3.6147152329031971e+00 0.0000000000000000e+00
6 2 -1.4179567132622701e+00 -1.8771389252144997e+00 0.0000000000000000e+00
6 3 8.9980491001683340e+00 -3.6623690167102643e+00 0.0000000000000000e+00
6 4 -2.4163686499837436e+00 -2.2826713098752319e-01 0.0000000000000000e+00
7 1 5.0302088323717076e+00 1.8353085101250903e+00 0.0000000000000000e+00
7 2 1.0164291694693308e+00 8.0253548642052497e+00 0.0000000000000000e+00
7 3 -7.4887750501395258e+00 6.1507420772488448e+00 0.0000000000000000e+00
7 4 4.1224375165264968e+00 2.3069398652287805e+00 0.0000000000000000e+00
8 1 1.2647500051603662e+00 1.2939344658443536e+01 0.0000000000000000e+00
8 2 -5.7175733378232581e+00 -4.6595811071410592e-01 0.0000000000000000e+00
8 3 4.2330283866126921e+00 -4.9853993046362524e+00 0.0000000000000000e+00
8 4 1.9237590123521497e+00 -2.3812140390524889e-01 0.0000000000000000e+00
9 1 -2.8822596178173177e+00 -1.1058860111928935e+01 0.0000000000000000e+00
9 2 6.1916632315703479e+00 -4.5382623769018293e+00 0.0000000000000000e+00
9 3 -3.0013385359177063e+00 1.5985209515059158e+00 0.0000000000000000e+00
9 4 4.0190096683213570e+00 6.2068070159278586e+00 0.0000000000000000e+00
10 1 9.3069643781205951e+00 -3.9569948291888535e+00 0.0000000000000000e+00
10 2 -5.9870781911217561e+00 3.2749319474888181e+00 0.0000000000000000e+00
10 3 7.2778749199830957e+00 9.8934316127752242e-01 0.0000000000000000e+00
10 4 -1.3331037642380853e+01 2.6524125103460411e-01 0.0000000000000000e+00
11 1 -1.4919531308732454e+00 -3.3100468328648658e+00 0.0000000000000000e+00
11 2 -3.8618188455151374e+00 -7.5611770510114562e+00 0.0000000000000000e+00
11 3 9.8744747122161201e+00 1.2078926094585998e+00 0.0000000000000000e+00
11 4 -6.1716409436103108e+00 -2.8417188221436702e+00 0.0000000000000000e+00
12 1 -7.7001372986828609e-01 -3.7089757432230548e+00 0.0000000000000000e+00
12 2 4.0961184105805239e+00 -5.2049109634218809e+00 0.0000000000000000e+00
12 3 5.1020989480178782e+00 2.1586678565893052e+00 0.0000000000000000e+00
12 4 9.3125894186722054e+00 -4.7879403570776571e+00 0.0000000000000000e+00
13 1 5.5061102884520468e+00 3.1121233142438296e+00 0.0000000000000000e+00
13 2 3.5365669387326419e+00 -3.7425320236043569e+00 0.0000000000000000e+00
13 3 -3.0657219029985137e+00 4.9906735044078570e+00 0.0000000000000000e+00
13 4 -5.5716311426016114e+00 -9.2137912979193448e+00 0.0000000000000000e+00
14 1 6.3939171593357835e-01 3.4215878080968460e+00 0.0000000000000000e+00
14 2 2.0868421843267995e+00 -3.4534776882123843e+00 0.0000000000000000e+00
14 3 2.6677952639052349e+00 3.7935900051143316e+00 0.0000000000000000e+00
14 4 -9.8737531851408935e+00 1.5896917885696382e+00 0.0000000000000000e+00
15 1 2.5923999742318187e+00 7.9332996252308901e+00 0.0000000000000000e+00
15 2 -6.4348489457320801e-02 -1.2916658146396681e+01 0.0000000000000000e+00
15 3 8.5887422449105593e+00 -8.1072557939810341e+00 0.0000000000000000e+00
15 4 3.3045588122867886e+00 6.9843600241563184e+00 0.0000000000000000e+00
16 1 5.2216221548189550e+00 3.1920003571296696e+00 0.0000000000000000e+00
16 2 8.0660526759232809e+00 -5.0973099374097752e-01 0.0000000000000000e+00
16 3 -1.2969337466878847e+00 -1.9141945621116074e+00 0.0000000000000000e+00
16 4 1.4334515225715903e+00 3.3533663509456559e+00 0.0000000000000000e+00
